# step     load            elastic energy  work            cohesive energy surface energy  total energy   dissipation plastic  
     1     0.00000E+00     0.00000E+00     0.00000E+00     0.00000E+00     3.15442E-01     3.15442E-01 
     2     1.25000E-01     7.08504E-03     0.00000E+00     0.00000E+00     3.15443E-01     3.22528E-01 
     3     2.50000E-01     2.83160E-02     0.00000E+00     0.00000E+00     3.15458E-01     3.43774E-01 
     4     3.75000E-01     6.36187E-02     0.00000E+00     0.00000E+00     3.15525E-01     3.79144E-01 
     5     5.00000E-01     1.12864E-01     0.00000E+00     0.00000E+00     3.15710E-01     4.28574E-01 
     6     6.25000E-01     1.75846E-01     0.00000E+00     0.00000E+00     3.16124E-01     4.91970E-01 
     7     7.50000E-01     2.52268E-01     0.00000E+00     0.00000E+00     3.16932E-01     5.69199E-01 
     8     8.75000E-01     3.41683E-01     0.00000E+00     0.00000E+00     3.18394E-01     6.60077E-01 
     9     1.00000E+00     4.43485E-01     0.00000E+00     0.00000E+00     3.20868E-01     7.64353E-01 
    10     1.12500E+00     5.55432E-01     0.00000E+00     0.00000E+00     3.26174E-01     8.81606E-01 
    11     1.25000E+00     6.72489E-01     0.00000E+00     0.00000E+00     3.38159E-01     1.01065E+00 
    12     1.37500E+00     7.95895E-01     0.00000E+00     0.00000E+00     3.54468E-01     1.15036E+00 
    13     1.50000E+00     9.11554E-01     0.00000E+00     0.00000E+00     3.87636E-01     1.29919E+00 
    14     1.62500E+00     1.60718E-02     0.00000E+00     0.00000E+00     1.16136E+00     1.17743E+00 
    15     1.75000E+00     1.40571E-02     0.00000E+00     0.00000E+00     1.16560E+00     1.17966E+00 
    16     1.87500E+00     1.24178E-02     0.00000E+00     0.00000E+00     1.16907E+00     1.18148E+00 
    17     2.00000E+00     1.10594E-02     0.00000E+00     0.00000E+00     1.17194E+00     1.18300E+00 
    18     2.12500E+00     9.91961E-03     0.00000E+00     0.00000E+00     1.17435E+00     1.18427E+00 
    19     2.25000E+00     8.94962E-03     0.00000E+00     0.00000E+00     1.17639E+00     1.18534E+00 
    20     2.37500E+00     8.11631E-03     0.00000E+00     0.00000E+00     1.17815E+00     1.18627E+00 
    21     2.50000E+00     7.39465E-03     0.00000E+00     0.00000E+00     1.17967E+00     1.18706E+00 
