# step     load            elastic energy  work            cohesive energy surface energy  total energy   dissipation plastic  
     1     0.00000E+00     0.00000E+00     0.00000E+00     0.00000E+00     3.48470E-01     3.48470E-01 
     2     1.25000E-01     6.66611E-03     0.00000E+00     0.00000E+00     3.48470E-01     3.55136E-01 
     3     2.50000E-01     2.66524E-02     0.00000E+00     0.00000E+00     3.48478E-01     3.75130E-01 
     4     3.75000E-01     5.99210E-02     0.00000E+00     0.00000E+00     3.48512E-01     4.08433E-01 
     5     5.00000E-01     1.06404E-01     0.00000E+00     0.00000E+00     3.48608E-01     4.55011E-01 
     6     6.25000E-01     1.65971E-01     0.00000E+00     0.00000E+00     3.48844E-01     5.14815E-01 
     7     7.50000E-01     2.38428E-01     0.00000E+00     0.00000E+00     3.49328E-01     5.87756E-01 
     8     8.75000E-01     3.23463E-01     0.00000E+00     0.00000E+00     3.50254E-01     6.73717E-01 
     9     1.00000E+00     4.20655E-01     0.00000E+00     0.00000E+00     3.51874E-01     7.72529E-01 
    10     1.12500E+00     5.29175E-01     0.00000E+00     0.00000E+00     3.54768E-01     8.83943E-01 
    11     1.25000E+00     6.47500E-01     0.00000E+00     0.00000E+00     3.60042E-01     1.00754E+00 
    12     1.37500E+00     7.71166E-01     0.00000E+00     0.00000E+00     3.71365E-01     1.14253E+00 
    13     1.50000E+00     8.82148E-01     0.00000E+00     0.00000E+00     4.04726E-01     1.28687E+00 
    14     1.62500E+00     1.53835E-02     0.00000E+00     0.00000E+00     1.14573E+00     1.16111E+00 
    15     1.75000E+00     1.34596E-02     0.00000E+00     0.00000E+00     1.14979E+00     1.16325E+00 
    16     1.87500E+00     1.19094E-02     0.00000E+00     0.00000E+00     1.15309E+00     1.16500E+00 
    17     2.00000E+00     1.06217E-02     0.00000E+00     0.00000E+00     1.15583E+00     1.16645E+00 
    18     2.12500E+00     9.53560E-03     0.00000E+00     0.00000E+00     1.15813E+00     1.16767E+00 
    19     2.25000E+00     8.61146E-03     0.00000E+00     0.00000E+00     1.16009E+00     1.16871E+00 
    20     2.37500E+00     7.81528E-03     0.00000E+00     0.00000E+00     1.16178E+00     1.16959E+00 
    21     2.50000E+00     7.12523E-03     0.00000E+00     0.00000E+00     1.16323E+00     1.17036E+00 
